4
	Energy:       0.0063369
O         -2.78435        1.33680        0.09890
H         -1.82545        1.44434        0.04526
H         -3.17727        0.45772        0.01667
O         -3.45645        2.25226        0.28607
