6
	Energy:     157.4491843
S         -2.21035        0.98999        0.95808
O         -2.40199        0.15916       -0.32071
O         -3.50301        1.53112        0.32986
O         -1.88101        2.44002        0.56908
O         -0.80001        1.05171       -0.02495
H         -0.07049        0.68065        0.53931
