4
	Energy:       0.0050491
O         -1.63553        0.67298        0.09704
H         -0.70550        0.51701       -0.11425
H         -1.87938        1.37254        0.71759
S         -2.59035       -0.09136       -0.46427
