4
	Energy:       0.9424107
O         -4.44891        1.78286       -0.56475
O         -3.31549        1.74827       -0.36772
S         -2.49392        0.26910       -0.40909
O         -1.15150        0.94115       -0.08541
