4
	Energy:       3.6310770
O         -4.68804       -0.11603        0.51801
O         -3.41874       -0.09709        0.17116
S         -2.56852        0.01937        1.65759
O         -1.04844        0.01901        0.86059
