4
	Energy:       0.5326133
S         -3.68083        2.09793        0.39171
O         -4.78006        1.00231       -0.11524
H         -2.14632        1.89222        0.69323
H         -3.68030        3.58560        0.40781
