5
	Energy:      28.7237831
O         -4.72947       -0.12109        0.45581
O         -3.43385       -0.09420        0.22680
H         -3.13118       -0.14158       -0.71538
S         -2.52885        0.02213        1.68274
O         -1.03158        0.01842        0.84201
